data_72194-ICSD
#?2010 by Fachinformationszentrum Karlsruhe, and the U.S. Secretary of 
#Commerce on behalf of the United States.  All rights reserved.
_database_code_ICSD                72194
_audit_creation_date               1994/01/19
_audit_update_record               2010/08/01
_chemical_name_systematic
;
Octasilver Tetratelluridosilicate Ditelluride - Gamma
;
_chemical_formula_structural       'Ag8 (Si Te4) Te2'
_chemical_formula_sum              'Ag8 Si1 Te6'
_publ_section_title
;
Single-crystal structure determination of gamma - Ag8 Si Te6 and 
powder x-ray study of low temperature alpha and beta phases
;
loop_
_citation_id
_citation_journal_abbrev
_citation_year
_citation_journal_volume
_citation_page_first
_citation_page_last
_citation_journal_id_ASTM
primary 'Journal of Solid State Chemistry' 1992 100 341 355 JSSCBI
2 'Journal of Solid State Chemistry' 1993 107 332 346 JSSCBI
3 'Phase Transition' 1992 38 127 220 PHTRDP
_publ_author_name                  'Boucher, F.;Evain, M.;Brec, R.'
_cell_length_a                     11.5225(7)
_cell_length_b                     11.5225(7)
_cell_length_c                     11.5225(7)
_cell_angle_alpha                  90.
_cell_angle_beta                   90.
_cell_angle_gamma                  90.
_cell_volume                       1529.82
_cell_formula_units_Z              4
_symmetry_space_group_name_H-M     'F -4 3 m'
_symmetry_Int_Tables_number        216
_refine_ls_R_factor_all            .0321
loop_
_symmetry_equiv_pos_site_id
_symmetry_equiv_pos_as_xyz
  1	'-z, -y, x'
  2	'-y, -x, z'
  3	'-x, -z, y'
  4	'-z, -x, y'
  5	'-y, -z, x'
  6	'-x, -y, z'
  7	'-z, y, -x'
  8	'-y, x, -z'
  9	'-x, z, -y'
 10	'-z, x, -y'
 11	'-y, z, -x'
 12	'-x, y, -z'
 13	'z, -y, -x'
 14	'y, -x, -z'
 15	'x, -z, -y'
 16	'z, -x, -y'
 17	'y, -z, -x'
 18	'x, -y, -z'
 19	'z, y, x'
 20	'y, x, z'
 21	'x, z, y'
 22	'z, x, y'
 23	'y, z, x'
 24	'x, y, z'
 25	'-z, -y+.5, x+.5'
 26	'-z+.5, -y, x+.5'
 27	'-z+.5, -y+.5, x'
 28	'-y, -x+.5, z+.5'
 29	'-y+.5, -x, z+.5'
 30	'-y+.5, -x+.5, z'
 31	'-x, -z+.5, y+.5'
 32	'-x+.5, -z, y+.5'
 33	'-x+.5, -z+.5, y'
 34	'-z, -x+.5, y+.5'
 35	'-z+.5, -x, y+.5'
 36	'-z+.5, -x+.5, y'
 37	'-y, -z+.5, x+.5'
 38	'-y+.5, -z, x+.5'
 39	'-y+.5, -z+.5, x'
 40	'-x, -y+.5, z+.5'
 41	'-x+.5, -y, z+.5'
 42	'-x+.5, -y+.5, z'
 43	'-z, y+.5, -x+.5'
 44	'-z+.5, y, -x+.5'
 45	'-z+.5, y+.5, -x'
 46	'-y, x+.5, -z+.5'
 47	'-y+.5, x, -z+.5'
 48	'-y+.5, x+.5, -z'
 49	'-x, z+.5, -y+.5'
 50	'-x+.5, z, -y+.5'
 51	'-x+.5, z+.5, -y'
 52	'-z, x+.5, -y+.5'
 53	'-z+.5, x, -y+.5'
 54	'-z+.5, x+.5, -y'
 55	'-y, z+.5, -x+.5'
 56	'-y+.5, z, -x+.5'
 57	'-y+.5, z+.5, -x'
 58	'-x, y+.5, -z+.5'
 59	'-x+.5, y, -z+.5'
 60	'-x+.5, y+.5, -z'
 61	'z, -y+.5, -x+.5'
 62	'z+.5, -y, -x+.5'
 63	'z+.5, -y+.5, -x'
 64	'y, -x+.5, -z+.5'
 65	'y+.5, -x, -z+.5'
 66	'y+.5, -x+.5, -z'
 67	'x, -z+.5, -y+.5'
 68	'x+.5, -z, -y+.5'
 69	'x+.5, -z+.5, -y'
 70	'z, -x+.5, -y+.5'
 71	'z+.5, -x, -y+.5'
 72	'z+.5, -x+.5, -y'
 73	'y, -z+.5, -x+.5'
 74	'y+.5, -z, -x+.5'
 75	'y+.5, -z+.5, -x'
 76	'x, -y+.5, -z+.5'
 77	'x+.5, -y, -z+.5'
 78	'x+.5, -y+.5, -z'
 79	'z, y+.5, x+.5'
 80	'z+.5, y, x+.5'
 81	'z+.5, y+.5, x'
 82	'y, x+.5, z+.5'
 83	'y+.5, x, z+.5'
 84	'y+.5, x+.5, z'
 85	'x, z+.5, y+.5'
 86	'x+.5, z, y+.5'
 87	'x+.5, z+.5, y'
 88	'z, x+.5, y+.5'
 89	'z+.5, x, y+.5'
 90	'z+.5, x+.5, y'
 91	'y, z+.5, x+.5'
 92	'y+.5, z, x+.5'
 93	'y+.5, z+.5, x'
 94	'x, y+.5, z+.5'
 95	'x+.5, y, z+.5'
 96	'x+.5, y+.5, z'
loop_
_atom_type_symbol
_atom_type_oxidation_number
Ag1+	1
Si4+	4
Te2-	-2
loop_
_atom_site_label
_atom_site_type_symbol
_atom_site_symmetry_multiplicity
_atom_site_Wyckoff_symbol
_atom_site_fract_x
_atom_site_fract_y
_atom_site_fract_z
_atom_site_occupancy
_atom_site_attached_hydrogens
_atom_site_B_iso_or_equiv
Si1 Si4+ 4 d 0.75 0.75 0.75 1. 0 0.79(8) 
Te1 Te2- 16 e 0.625 0.625 0.625 1. 0 0 
Te2 Te2- 4 c 0.25 0.25 0.25 1. 0 5.55(9) 
Te3 Te2- 4 a 0 0 0 1. 0 4.79(8) 
Ag1 Ag1+ 48 h 0.4271(8) 0.4271(8) 0.2232(10) 0.185(13) 0 0 
Ag2 Ag1+ 48 h 0.463(2) 0.463(2) 0.2275(10) 0.246(11) 0 0 
Ag3 Ag1+ 96 i 0.368(3) 0.4388(15) 0.228(2) 0.118 0 0 

loop_
_atom_site_aniso_label
_atom_site_aniso_type_symbol
_atom_site_aniso_U_11
_atom_site_aniso_U_22
_atom_site_aniso_U_33
_atom_site_aniso_U_12
_atom_site_aniso_U_13
_atom_site_aniso_U_23
Te1 Te2- 0.0218(1) 0.0218(1) 0.0218(1) -0.0044(1) -0.0044(1) -0.0044(1)
Ag1 Ag1+ 0.054(1) 0.054(1) 0.027(2) -0.008(2) -0.007(1) -0.007(1)
Ag2 Ag1+ 0.212(1) 0.212(1) 0.075(2) 0.177(2) -0.106(1) -0.106(1)
Ag3 Ag1+ 0.079(3) 0.079(3) 0.217(6) -0.102(3) 0.149(6) -0.092(3)
#End of data_72194-ICSD


