data_24374-ICSD
#?2010 by Fachinformationszentrum Karlsruhe, and the U.S. Secretary of 
#Commerce on behalf of the United States.  All rights reserved.
_database_code_ICSD                24374
_audit_creation_date               1981/12/31
_chemical_name_systematic
;
Copper(I) Tetrathiosilicate Disulfide
;
_chemical_formula_structural       'Cu8 Si S6'
_chemical_formula_sum              'Cu8 S6 Si1'
_publ_section_title
;
Structure du Sulfure de Cuivre et de Silicium Cu8 Si S6
;
loop_
_citation_id
_citation_journal_abbrev
_citation_year
_citation_journal_volume
_citation_page_first
_citation_page_last
_citation_journal_id_ASTM
primary 'Acta Crystallographica B (24,1968-38,1982)' 1981 37 1816 1819 ACBCAR
_publ_author_name                  'Levalois, M.;Allais, G.'
_cell_length_a                     6.9928(6)
_cell_length_b                     6.9000(13)
_cell_length_c                     9.7723(14)
_cell_angle_alpha                  90.
_cell_angle_beta                   90.
_cell_angle_gamma                  90.
_cell_volume                       471.52
_cell_formula_units_Z              2
_symmetry_space_group_name_H-M     'P m n 21'
_symmetry_Int_Tables_number        31
_refine_ls_R_factor_all            .031
loop_
_symmetry_equiv_pos_site_id
_symmetry_equiv_pos_as_xyz
  1	'x+.5, -y, z+.5'
  2	'-x+.5, -y, z+.5'
  3	'-x, y, z'
  4	'x, y, z'
loop_
_atom_type_symbol
_atom_type_oxidation_number
Cu1+	1
S2-	-2
Si4+	4
loop_
_atom_site_label
_atom_site_type_symbol
_atom_site_symmetry_multiplicity
_atom_site_Wyckoff_symbol
_atom_site_fract_x
_atom_site_fract_y
_atom_site_fract_z
_atom_site_occupancy
_atom_site_attached_hydrogens
_atom_site_B_iso_or_equiv
Cu1 Cu1+ 4 b 0.2103(7) 0.5249(7) 0.2605(7) 1. 0 0 
Cu2 Cu1+ 4 b 0.2007(8) 0.1060(9) 0.8567(9) 1. 0 0 
Cu3 Cu1+ 4 b 0.1947(10) 0.1360(11) 0.1565(10) 1. 0 0 
Cu4 Cu1+ 2 a 0 0.6068(13) 0.0261(12) 1. 0 0 
Cu5 Cu1+ 2 a 0 0.7321(11) 0.4793(10) 1. 0 0 
Si1 Si4+ 2 a 0 0.2505(22) 0.5069(20) 1. 0 0.82 
S1 S2- 4 b 0.2511(16) 0.7550(15) 0.8911(11) 1. 0 0.73 
S2 S2- 2 a 0 0.0001(22) 0.6393(14) 1. 0 0.18 
S3 S2- 2 a 0 0.4936(21) 0.6425(17) 1. 0 0.78 
S4 S2- 2 a 0 0.7815(19) 0.2474(18) 1. 0 1.11 
S5 S2- 2 a 0 0.2684(20) 0 1. 0 0.51 

#End of data_24374-ICSD


