data_16238-ICSD
#?2010 by Fachinformationszentrum Karlsruhe, and the U.S. Secretary of 
#Commerce on behalf of the United States.  All rights reserved.
_database_code_ICSD                16238
_audit_creation_date               1980/01/01
_chemical_name_systematic
;
Cadmium Tetrathiosilicate Disulfide
;
_chemical_formula_structural       'Cd4 Si S6'
_chemical_formula_sum              'Cd4 S6 Si1'
_publ_section_title
;
Struktur und Eigenschaften von Cd4 Si S6
;
loop_
_citation_id
_citation_journal_abbrev
_citation_year
_citation_journal_volume
_citation_page_first
_citation_page_last
_citation_journal_id_ASTM
primary 'Zeitschrift fuer Anorganische und Allgemeine Chemie'
 1972 388 193 206 ZAACAB
_publ_author_name                  'Krebs, B.;Mandt, J.'
_cell_length_a                     12.310(6)
_cell_length_b                     7.041(4)
_cell_length_c                     12.336(8)
_cell_angle_alpha                  90.
_cell_angle_beta                   110.38(5)
_cell_angle_gamma                  90.
_cell_volume                       1002.29
_cell_formula_units_Z              4
_symmetry_space_group_name_H-M     'C 1 c 1'
_symmetry_Int_Tables_number        9
_refine_ls_R_factor_all            .032
loop_
_symmetry_equiv_pos_site_id
_symmetry_equiv_pos_as_xyz
  1	'x, -y, z+.5'
  2	'x, y, z'
  3	'x+.5, -y+.5, z+.5'
  4	'x+.5, y+.5, z'
loop_
_atom_type_symbol
_atom_type_oxidation_number
Cd2+	2
S2-	-2
Si4+	4
loop_
_atom_site_label
_atom_site_type_symbol
_atom_site_symmetry_multiplicity
_atom_site_Wyckoff_symbol
_atom_site_fract_x
_atom_site_fract_y
_atom_site_fract_z
_atom_site_occupancy
_atom_site_attached_hydrogens
Cd1 Cd2+ 4 a 0 0.1142(1) 0 1. 0 
Cd2 Cd2+ 4 a 0.1833(1) 0.1962(1) 0.3473(1) 1. 0 
Cd3 Cd2+ 4 a 0.3147(1) 0.5780(1) 0.1922(1) 1. 0 
Cd4 Cd2+ 4 a 0.4709(1) 0.1057(1) 0.1875(1) 1. 0 
Si1 Si4+ 4 a 0.2485(3) 0.7317(5) 0.4388(2) 1. 0 
S1 S2- 4 a 0.2055(2) 0.0257(4) 0.0178(2) 1. 0 
S2 S2- 4 a -.0067(2) 0.2515(4) 0.1853(2) 1. 0 
S3 S2- 4 a 0.3666(2) 0.2708(4) 0.3057(2) 1. 0 
S4 S2- 4 a 0.4306(2) 0.2614(4) -.0120(2) 1. 0 
S5 S2- 4 a 0.1764(2) 0.4891(4) 0.4853(2) 1. 0 
S6 S2- 4 a 0.1746(2) 0.7744(4) 0.2558(2) 1. 0 

#End of data_16238-ICSD


