data_414363-ICSD
#?2010 by Fachinformationszentrum Karlsruhe, and the U.S. Secretary of 
#Commerce on behalf of the United States.  All rights reserved.
_database_code_ICSD                414363
_audit_creation_date               2005/10/01
_chemical_name_systematic
;
Copper Thiosilicate Iodide (7.49/5.49/1/0.51)
;
_chemical_formula_structural       'Cu7.49 Si S5.49 I0.51'
_chemical_formula_sum              'Cu7.49 I0.51 S5.49 Si1'
_chemical_name_mineral             Argyrodite
_publ_section_title
;
A structural differentiation of quaternary copper argyrodites: 
Structure - property relations of high temperature ion conductors
;
loop_
_citation_id
_citation_journal_abbrev
_citation_year
_citation_journal_volume
_citation_page_first
_citation_page_last
_citation_journal_id_ASTM
primary 'Zeitschrift fuer Kristallographie (149,1979-)' 2005 220 281 294 ZEKRDZ
_publ_author_name                  'Nilges, T.;Pfitzner, A.'
_cell_length_a                     9.8967(2)
_cell_length_b                     9.8967(2)
_cell_length_c                     9.8967(2)
_cell_angle_alpha                  90.
_cell_angle_beta                   90.
_cell_angle_gamma                  90.
_cell_volume                       969.32
_cell_formula_units_Z              4
_symmetry_space_group_name_H-M     'F -4 3 m'
_symmetry_Int_Tables_number        216
_refine_ls_R_factor_all            .0321
loop_
_symmetry_equiv_pos_site_id
_symmetry_equiv_pos_as_xyz
  1	'-z, -y, x'
  2	'-y, -x, z'
  3	'-x, -z, y'
  4	'-z, -x, y'
  5	'-y, -z, x'
  6	'-x, -y, z'
  7	'-z, y, -x'
  8	'-y, x, -z'
  9	'-x, z, -y'
 10	'-z, x, -y'
 11	'-y, z, -x'
 12	'-x, y, -z'
 13	'z, -y, -x'
 14	'y, -x, -z'
 15	'x, -z, -y'
 16	'z, -x, -y'
 17	'y, -z, -x'
 18	'x, -y, -z'
 19	'z, y, x'
 20	'y, x, z'
 21	'x, z, y'
 22	'z, x, y'
 23	'y, z, x'
 24	'x, y, z'
 25	'-z, -y+.5, x+.5'
 26	'-z+.5, -y, x+.5'
 27	'-z+.5, -y+.5, x'
 28	'-y, -x+.5, z+.5'
 29	'-y+.5, -x, z+.5'
 30	'-y+.5, -x+.5, z'
 31	'-x, -z+.5, y+.5'
 32	'-x+.5, -z, y+.5'
 33	'-x+.5, -z+.5, y'
 34	'-z, -x+.5, y+.5'
 35	'-z+.5, -x, y+.5'
 36	'-z+.5, -x+.5, y'
 37	'-y, -z+.5, x+.5'
 38	'-y+.5, -z, x+.5'
 39	'-y+.5, -z+.5, x'
 40	'-x, -y+.5, z+.5'
 41	'-x+.5, -y, z+.5'
 42	'-x+.5, -y+.5, z'
 43	'-z, y+.5, -x+.5'
 44	'-z+.5, y, -x+.5'
 45	'-z+.5, y+.5, -x'
 46	'-y, x+.5, -z+.5'
 47	'-y+.5, x, -z+.5'
 48	'-y+.5, x+.5, -z'
 49	'-x, z+.5, -y+.5'
 50	'-x+.5, z, -y+.5'
 51	'-x+.5, z+.5, -y'
 52	'-z, x+.5, -y+.5'
 53	'-z+.5, x, -y+.5'
 54	'-z+.5, x+.5, -y'
 55	'-y, z+.5, -x+.5'
 56	'-y+.5, z, -x+.5'
 57	'-y+.5, z+.5, -x'
 58	'-x, y+.5, -z+.5'
 59	'-x+.5, y, -z+.5'
 60	'-x+.5, y+.5, -z'
 61	'z, -y+.5, -x+.5'
 62	'z+.5, -y, -x+.5'
 63	'z+.5, -y+.5, -x'
 64	'y, -x+.5, -z+.5'
 65	'y+.5, -x, -z+.5'
 66	'y+.5, -x+.5, -z'
 67	'x, -z+.5, -y+.5'
 68	'x+.5, -z, -y+.5'
 69	'x+.5, -z+.5, -y'
 70	'z, -x+.5, -y+.5'
 71	'z+.5, -x, -y+.5'
 72	'z+.5, -x+.5, -y'
 73	'y, -z+.5, -x+.5'
 74	'y+.5, -z, -x+.5'
 75	'y+.5, -z+.5, -x'
 76	'x, -y+.5, -z+.5'
 77	'x+.5, -y, -z+.5'
 78	'x+.5, -y+.5, -z'
 79	'z, y+.5, x+.5'
 80	'z+.5, y, x+.5'
 81	'z+.5, y+.5, x'
 82	'y, x+.5, z+.5'
 83	'y+.5, x, z+.5'
 84	'y+.5, x+.5, z'
 85	'x, z+.5, y+.5'
 86	'x+.5, z, y+.5'
 87	'x+.5, z+.5, y'
 88	'z, x+.5, y+.5'
 89	'z+.5, x, y+.5'
 90	'z+.5, x+.5, y'
 91	'y, z+.5, x+.5'
 92	'y+.5, z, x+.5'
 93	'y+.5, z+.5, x'
 94	'x, y+.5, z+.5'
 95	'x+.5, y, z+.5'
 96	'x+.5, y+.5, z'
loop_
_atom_type_symbol
_atom_type_oxidation_number
Cu1+	1
I1-	-1
S2-	-2
Si4+	4
loop_
_atom_site_label
_atom_site_type_symbol
_atom_site_symmetry_multiplicity
_atom_site_Wyckoff_symbol
_atom_site_fract_x
_atom_site_fract_y
_atom_site_fract_z
_atom_site_occupancy
_atom_site_attached_hydrogens
_atom_site_U_iso_or_equiv
Cu1 Cu1+ 24 g 0.0244(1) 0.25 0.25 0.617(7) 0 0.0476(5) 
Cu2 Cu1+ 48 h 0.0045(4) 0.1768(5) 0.1768(5) 0.221(4) 0 0.070(1) 
Cu3 Cu1+ 16 e 0.1218(6) 0.1218(6) 0.1218(6) 0.112(8) 0 0.113(6) 
S1 S2- 16 e 0.62333(5) 0.62333(5) 0.62333(5) 1 0 0.0086(1) 
S2 S2- 4 c 0.25 0.25 0.25 1.00008 0 0.0165(2) 
I1 I1- 4 a 0 0 0 0.508296 0 0.0185(1) 
S3 S2- 4 a 0 0 0 0.491784 0 0.0185(1) 
Si1 Si4+ 4 b 0 0.5 0 1.00008 0 0.0063(2) 
Cu4 Cu1+ 48 h 0.0119 0.1911 0.1911 0.0573 0 0.037995 

loop_
_atom_site_aniso_label
_atom_site_aniso_type_symbol
_atom_site_aniso_U_11
_atom_site_aniso_U_22
_atom_site_aniso_U_33
_atom_site_aniso_U_12
_atom_site_aniso_U_13
_atom_site_aniso_U_23
Cu1 Cu1+ 0.0184(5) 0.062(1) 0.062(1) 0 0 0.042(1)
Cu2 Cu1+ 0.074(2) 0.068(2) 0.068(2) 0.020(1) 0.020(1) 0.045(2)
Cu3 Cu1+ 0.11(1) 0.11(1) 0.11(1) -0.048(5) -0.048(5) -0.048(5)
S1 S2- 0.0086(2) 0.0086(2) 0.0086(2) -0.0026(1) -0.0026(1) -0.0026(1)
S2 S2- 0.0165(3) 0.0165(3) 0.0165(3) 0 0 0
I1 I1- 0.0185(2) 0.0185(2) 0.0185(2) 0 0 0
S3 S2- 0.0185(2) 0.0185(2) 0.0185(2) 0 0 0
Si1 Si4+ 0.0063(3) 0.0063(3) 0.0063(3) 0 0 0
#End of data_414363-ICSD


