data_1054-ICSD
#?2010 by Fachinformationszentrum Karlsruhe, and the U.S. Secretary of 
#Commerce on behalf of the United States.  All rights reserved.
_database_code_ICSD                1054
_audit_creation_date               1980/01/01
_audit_update_record               2010/08/01
_chemical_name_systematic
;
Octasilver Tetrathiosilicate Disulfide
;
_chemical_formula_structural       'Ag8 (Si S4) S2'
_chemical_formula_sum              'Ag8 S6 Si1'
_publ_section_title
;
Zur Kenntnis des Argyrodit-Strukturtyps: die Kristallstruktur von Ag8 
Si S6
;
loop_
_citation_id
_citation_journal_abbrev
_citation_year
_citation_journal_volume
_citation_page_first
_citation_page_last
_citation_journal_id_ASTM
primary
;
Zeitschrift fuer Naturforschung, Teil B. Anorganische Chemie, 
Organische Chemie (2,1947-32,1977)
;
 1977 32 373 379 ZENBAX
2 'Phase Transition' 1992 38 127 220 PHTRDP
_publ_author_name                  'Krebs, B.;Mandt, J.'
_cell_length_a                     15.024(1)
_cell_length_b                     7.428(3)
_cell_length_c                     10.533(4)
_cell_angle_alpha                  90.
_cell_angle_beta                   90.
_cell_angle_gamma                  90.
_cell_volume                       1175.46
_cell_formula_units_Z              4
_symmetry_space_group_name_H-M     'P n a 21'
_symmetry_Int_Tables_number        33
_refine_ls_R_factor_all            .053
loop_
_symmetry_equiv_pos_site_id
_symmetry_equiv_pos_as_xyz
  1	'x+.5, -y+.5, z'
  2	'-x+.5, y+.5, z+.5'
  3	'-x, -y, z+.5'
  4	'x, y, z'
loop_
_atom_type_symbol
_atom_type_oxidation_number
Ag1+	1
S2-	-2
Si4+	4
loop_
_atom_site_label
_atom_site_type_symbol
_atom_site_symmetry_multiplicity
_atom_site_Wyckoff_symbol
_atom_site_fract_x
_atom_site_fract_y
_atom_site_fract_z
_atom_site_occupancy
_atom_site_attached_hydrogens
_atom_site_B_iso_or_equiv
Ag1 Ag1+ 4 a 0.12690(9) 0.2807(4) 0 1. 0 0 
Ag2 Ag1+ 4 a 0.48422(13) 0.9922(3) 0.2771(5) 1. 0 0 
Ag3 Ag1+ 4 a 0.22786(11) 0.6138(2) 0.1970(5) 1. 0 0 
Ag4 Ag1+ 4 a 0.42862(15) 0.4371(3) 0.3597(5) 1. 0 0 
Ag5 Ag1+ 4 a 0.27632(12) 0.0067(3) 0.3020(5) 1. 0 0 
Ag6 Ag1+ 4 a 0.07835(14) 0.9063(3) 0.1873(5) 1. 0 0 
Ag7 Ag1+ 4 a 0.43633(14) 0.7731(2) 0.0408(5) 1. 0 0 
Ag8 Ag1+ 4 a 0.23992(13) 0.8862(3) -.0134(6) 1. 0 0 
Si1 Si4+ 4 a 0.37650(24) 0.2706(9) 0.0273(9) 1. 0 1.28 
S1 S2- 4 a 0.37732(29) 0.7337(9) 0.2762(11) 1. 0 2.03 
S2 S2- 4 a 0.11402(26) 0.6890(7) 0.0162(7) 1. 0 1.33 
S3 S2- 4 a 0.26415(47) 0.2665(7) 0.1490(8) 1. 0 1.42 
S4 S2- 4 a 0.48998(48) 0.2709(7) 0.1469(8) 1. 0 1.58 
S5 S2- 4 a 0.37779(26) 0.5057(9) -.0883(8) 1. 0 1.69 
S6 S2- 4 a 0.37234(28) 0.0431(9) -.0896(8) 1. 0 1.76 

loop_
_atom_site_aniso_label
_atom_site_aniso_type_symbol
_atom_site_aniso_B_11
_atom_site_aniso_B_22
_atom_site_aniso_B_33
_atom_site_aniso_B_12
_atom_site_aniso_B_13
_atom_site_aniso_B_23
Ag1 Ag1+ 2.57(14) 6.46(13) 2.87(16) -.68(7) 0.27(6) 1.29(14)
Ag2 Ag1+ 3.72(9) 3.49(8) 4.85(10) -1.44(7) -1.88(8) 1.75(8)
Ag3 Ag1+ 3.27(8) 3.24(7) 3.89(8) 0.16(7) -.45(8) -.50(7)
Ag4 Ag1+ 5.63(11) 3.01(8) 3.55(8) 0.81(7) 1.52(8) 0.93(7)
Ag5 Ag1+ 3.38(8) 3.48(8) 5.01(10) 1.21(7) 1.41(8) 2.04(8)
Ag6 Ag1+ 4.91(10) 3.91(8) 2.85(7) 0.44(7) -.45(9) -1.74(7)
Ag7 Ag1+ 4.66(9) 2.61(6) 2.95(8) 0.22(6) -.26(8) 0.21(6)
Ag8 Ag1+ 2.83(8) 6.80(13) 8.97(17) -2.45(8) -.29(10) 3.64(12)
#End of data_1054-ICSD


