data_100079-ICSD
#?2010 by Fachinformationszentrum Karlsruhe, and the U.S. Secretary of 
#Commerce on behalf of the United States.  All rights reserved.
_database_code_ICSD                100079
_audit_creation_date               1980/01/01
_audit_update_record               2007/08/01
_chemical_name_systematic
;
Octasilver Tetrathiogermanate Disulfide - Lt
;
_chemical_formula_structural       'Ag8 (Ge S4) S2'
_chemical_formula_sum              'Ag8 Ge1 S6'
_chemical_name_mineral             Argyrodite
_publ_section_title
;
Die Kristallstruktur der Tieftemperaturmodifikation von Ag8 Ge S6
;
loop_
_citation_id
_citation_journal_abbrev
_citation_year
_citation_journal_volume
_citation_page_first
_citation_page_last
_citation_journal_id_ASTM
primary 'Monatshefte fuer Chemie (-108,1977)' 1977 108 901 913 MOCHAP
2 'Phase Transition' 1992 38 127 220 PHTRDP
_publ_author_name                  'Eulenberger, G.'
_cell_length_a                     15.149(1)
_cell_length_b                     7.476(2)
_cell_length_c                     10.589(1)
_cell_angle_alpha                  90.
_cell_angle_beta                   90.
_cell_angle_gamma                  90.
_cell_volume                       1199.25
_cell_formula_units_Z              4
_symmetry_space_group_name_H-M     'P n a 21'
_symmetry_Int_Tables_number        33
_refine_ls_R_factor_all            .082
loop_
_symmetry_equiv_pos_site_id
_symmetry_equiv_pos_as_xyz
  1	'x+.5, -y+.5, z'
  2	'-x+.5, y+.5, z+.5'
  3	'-x, -y, z+.5'
  4	'x, y, z'
loop_
_atom_type_symbol
_atom_type_oxidation_number
Ag1+	1
Ge4+	4
S2-	-2
loop_
_atom_site_label
_atom_site_type_symbol
_atom_site_symmetry_multiplicity
_atom_site_Wyckoff_symbol
_atom_site_fract_x
_atom_site_fract_y
_atom_site_fract_z
_atom_site_occupancy
_atom_site_attached_hydrogens
Ag1 Ag1+ 4 a 0.1270(1) 0.2231(4) 0.3766(2) 1. 0 
Ag2 Ag1+ 4 a 0.0622(2) 0.2257(2) 0.8373(2) 1. 0 
Ag3 Ag1+ 4 a 0.4323(2) 0.0617(3) 0.0190(3) 1. 0 
Ag4 Ag1+ 4 a 0.2763(1) 0.5000(3) 0.0822(3) 1. 0 
Ag5 Ag1+ 4 a 0.4187(1) 0.0908(3) 0.6964(3) 1. 0 
Ag6 Ag1+ 4 a 0.2727(1) 0.3842(3) 0.6874(3) 1. 0 
Ag7 Ag1+ 4 a 0.0169(2) 0.0104(3) 0.6025(3) 1. 0 
Ag8 Ag1+ 4 a 0.2588(1) 0.1277(4) 0.9059(4) 1. 0 
Ge1 Ge4+ 4 a 0.3757(1) 0.2285(2) 0.352 1. 0 
S1 S2- 4 a 0.1225(3) 0.4900(5) 0.9750(4) 1. 0 
S2 S2- 4 a -.0046(3) 0.2700(5) 0.2320(4) 1. 0 
S3 S2- 4 a 0.3726(3) 0.4684(5) 0.4766(4) 1. 0 
S4 S2- 4 a 0.2582(3) 0.2335(6) 0.2300(4) 1. 0 
S5 S2- 4 a 0.3864(3) 0.3131(5) 0.8655(4) 1. 0 
S6 S2- 4 a 0.1224(3) 0.2668(6) 0.6115(5) 1. 0 

loop_
_atom_site_aniso_label
_atom_site_aniso_type_symbol
_atom_site_aniso_U_11
_atom_site_aniso_U_22
_atom_site_aniso_U_33
_atom_site_aniso_U_12
_atom_site_aniso_U_13
_atom_site_aniso_U_23
Ag1 Ag1+ 0.0328(9) 0.0781(15) 0.0233(8) 0.0001(9) -0.0003(7) 0.0091(10)
Ag2 Ag1+ 0.0562(11) 0.0335(8) 0.0261(8) 0.0020(6) -0.0026(3) 0.0028(8)
Ag3 Ag1+ 0.0629(13) 0.0341(8) 0.0323(9) 0.0111(7) -0.0138(9) -0.0090(9)
Ag4 Ag1+ 0.0391(10) 0.0394(9) 0.0580(14) 0.0252(9) -0.0184(10) -0.0146(8)
Ag5 Ag1+ 0.0580(12) 0.0457(10) 0.0324(9) -0.0253(8) -0.0021(9) 0.0036(9)
Ag6 Ag1+ 0.0400(9) 0.0388(8) 0.0349(9) -0.0068(7) -0.0050(8) 0.0030(8)
Ag7 Ag1+ 0.0487(11) 0.0393(9) 0.0523(13) 0.0228(9) -0.0251(11) 0.0166(8)
Ag8 Ag1+ 0.0330(9) 0.0370(18) 0.0786(20) 0.0289(16) 0.0011(11) -0.0256(10)
Ge1 Ge4+ 0.0113(6) 0.0112(5) 0.0091(6) 0.0002(5) 0.0009(6) 0.0008(5)
S1 S2- 0.0163(15) 0.0132(14) 0.0157(16) 0.0028(13) -0.0029(15) -0.0015(13)
S2 S2- 0.0150(16) 0.0162(15) 0.0140(16) 0.0009(13) 0.0011(13) -0.0016(13)
S3 S2- 0.0226(17) 0.0104(12) 0.0127(15) -0.0022(11) -0.0001(15) 0.0026(13)
S4 S2- 0.0162(17) 0.0214(17) 0.0137(16) 0.0015(14) -0.0025(13) -0.0010(14)
S5 S2- 0.0178(17) 0.0171(14) 0.0153(17) -0.0034(13) 0.0043(13) -0.0005(12)
S6 S2- 0.0225(18) 0.0205(15) 0.0206(17) -0.0016(15) 0.0031(18) -0.0021(15)
#End of data_100079-ICSD


