data_89451-ICSD
#?2010 by Fachinformationszentrum Karlsruhe, and the U.S. Secretary of 
#Commerce on behalf of the United States.  All rights reserved.
_database_code_ICSD                89451
_audit_creation_date               2002/04/01
_chemical_name_systematic          'Octacopper(I) Silicon Selenide'
_chemical_formula_structural       'Cu8 Si Se6'
_chemical_formula_sum              'Cu8 Se6 Si1'
_publ_section_title
;
Structure and vibrational spectra of argyrodite family compounds Cu8 
Si X6 (X = S, Se) and Cu8 Ge S6
;
loop_
_citation_id
_citation_journal_abbrev
_citation_year
_citation_journal_volume
_citation_page_first
_citation_page_last
_citation_journal_id_ASTM
primary 'Solid State Ionics' 1999 121 11 18 SSIOD3
_publ_author_name                  'Ishii, M.;Onoda, M.;Shibata, K.'
_cell_length_a                     7.2835(2)
_cell_length_b                     7.2185(2)
_cell_length_c                     10.2281(3)
_cell_angle_alpha                  90.
_cell_angle_beta                   90.
_cell_angle_gamma                  90.
_cell_volume                       537.75
_cell_formula_units_Z              2
_symmetry_space_group_name_H-M     'P m n 21'
_symmetry_Int_Tables_number        31
loop_
_symmetry_equiv_pos_site_id
_symmetry_equiv_pos_as_xyz
  1	'x+.5, -y, z+.5'
  2	'-x+.5, -y, z+.5'
  3	'-x, y, z'
  4	'x, y, z'
loop_
_atom_type_symbol
_atom_type_oxidation_number
Cu1+	1
Se2-	-2
Si4+	4
loop_
_atom_site_label
_atom_site_type_symbol
_atom_site_symmetry_multiplicity
_atom_site_Wyckoff_symbol
_atom_site_fract_x
_atom_site_fract_y
_atom_site_fract_z
_atom_site_occupancy
_atom_site_attached_hydrogens
_atom_site_B_iso_or_equiv
Si1 Si4+ 2 a 0 0.25(2) 0.50(2) 1. 0 0.7 
Se1 Se2- 4 b 0.244(7) 0.748(6) 0.878(9) 1. 0 0.7 
Se2 Se2- 2 a 0 0.01(1) 0.63(1) 1. 0 0.7 
Se3 Se2- 2 a 0 0.49(1) 0.63(1) 1. 0 0.7 
Se4 Se2- 2 a 0 0.783(7) 0.26(1) 1. 0 0.7 
Se5 Se2- 2 a 0 0.277(7) 0 1. 0 0.7 
Cu1 Cu1+ 4 b 0.218(6) 0.539(6) 0.25(1) 1. 0 2.6 
Cu2 Cu1+ 4 b 0.189(8) 0.114(6) 0.84(1) 1. 0 2.6 
Cu3 Cu1+ 4 b 0.190(9) 0.121(6) 0.15(1) 1. 0 2.6 
Cu4 Cu1+ 2 a 0 0.63(1) 0.039(8) 1. 0 2.6 
Cu5 Cu1+ 2 a 0 0.75(1) 0.48(1) 1. 0 2.6 

#End of data_89451-ICSD


