data_280133-ICSD
#?2010 by Fachinformationszentrum Karlsruhe, and the U.S. Secretary of 
#Commerce on behalf of the United States.  All rights reserved.
_database_code_ICSD                280133
_audit_creation_date               2000/07/15
_audit_update_record               2007/08/01
_chemical_name_systematic          'Octacopper(I) Germanium Sulfide'
_chemical_formula_structural       'Cu8 Ge S6'
_chemical_formula_sum              'Cu8 Ge1 S6'
_publ_section_title
;
Structure refinement of Cu8 GeS 6 using x-ray diffraction data from a 
multiple-twinned crystal
;
loop_
_citation_id
_citation_journal_abbrev
_citation_year
_citation_journal_volume
_citation_page_first
_citation_page_last
_citation_journal_id_ASTM
primary 'Acta Crystallographica B (39,1983-)' 1999 55 721 725 ASBSDK
2 'Golden Book of Phase Transitions, Wroclaw' 2002 1 1 123 GBOPT5
_publ_author_name
;
Onoda, M.;Chen, X.-A.;Kato, K.;Sato, A.;Wada, H.
;
_cell_length_a                     7.0445(3)
_cell_length_b                     6.9661(3)
_cell_length_c                     9.8699(5)
_cell_angle_alpha                  90.
_cell_angle_beta                   90.
_cell_angle_gamma                  90.
_cell_volume                       484.34
_cell_formula_units_Z              2
_symmetry_space_group_name_H-M     'P m n 21'
_symmetry_Int_Tables_number        31
_refine_ls_R_factor_all            .087
loop_
_symmetry_equiv_pos_site_id
_symmetry_equiv_pos_as_xyz
  1	'x+.5, -y, z+.5'
  2	'-x+.5, -y, z+.5'
  3	'-x, y, z'
  4	'x, y, z'
loop_
_atom_type_symbol
_atom_type_oxidation_number
Cu1+	1
Ge4+	4
S2-	-2
loop_
_atom_site_label
_atom_site_type_symbol
_atom_site_symmetry_multiplicity
_atom_site_Wyckoff_symbol
_atom_site_fract_x
_atom_site_fract_y
_atom_site_fract_z
_atom_site_occupancy
_atom_site_attached_hydrogens
_atom_site_U_iso_or_equiv
Ge1 Ge4+ 2 a 0 0.2492(3) 0.5072(13) 1. 0 0.009(1) 
Cu1 Cu1+ 4 b 0.2210(6) 0.5244(6) 0.2566(15) 1. 0 0.025(1) 
Cu2 Cu1+ 4 b 0.1990(7) 0.1076(7) 0.8512(14) 1. 0 0.029(1) 
Cu3 Cu1+ 4 b 0.2003(8) 0.1467(8) 0.1494(14) 1. 0 0.049(2) 
Cu4 Cu1+ 2 a 0 0.6010(7) 0.0173(17) 1. 0 0.033(2) 
Cu5 Cu1+ 2 a 0 0.7292(7) 0.4759(15) 1. 0 0.024(2) 
S1 S2- 4 b 0.2418(9) 0.7564(7) 0.8864(16) 1. 0 0.011(2) 
S2 S2- 2 a 0 0 0.6440(18) 1. 0 0.010(2) 
S3 S2- 2 a 0 0.4976(10) 0.6402(17) 1. 0 0.009(2) 
S4 S2- 2 a 0 0.7750(9) 0.251(2) 1. 0 0.018(3) 
S5 S2- 2 a 0 0.2714(9) 0 1. 0 0.011(2) 

loop_
_atom_site_aniso_label
_atom_site_aniso_type_symbol
_atom_site_aniso_U_11
_atom_site_aniso_U_22
_atom_site_aniso_U_33
_atom_site_aniso_U_12
_atom_site_aniso_U_13
_atom_site_aniso_U_23
Ge1 Ge4+ 0.005(1) 0.005 0.018(3) 0.003(1) 0.001(1) 0.001
Cu1 Cu1+ 0.027(2) 0.015(1) 0.033(3) 0.002(2) 0.011(2) -.001(2)
Cu2 Cu1+ 0.034(2) 0.022(2) 0.030(3) 0.003(2) -.003(2) -.006(2)
Cu3 Cu1+ 0.091(5) 0.024(2) 0.032(3) 0.019(3) -.009(3) 0.008(2)
Cu4 Cu1+ 0.023(2) 0.023 0.054(5) 0.009(2) 0.012(3) 0.012
Cu5 Cu1+ 0.028(2) 0.028 0.016(4) -.012(3) 0.005(2) 0.005
S1 S2- 0.010(3) 0.009(3) 0.017(5) 0.004(3) -.002(2) -.002(2)
S2 S2- 0.008(2) 0.008 0.013(5) -.002(3) 0.002(3) 0.002
S3 S2- 0.006(2) 0.006 0.013(5) 0.002(3) -.003(3) -.003
S4 S2- 0.008(2) 0.008 0.040(8) -.002(3) -.006(3) -.006
S5 S2- 0.008(2) 0.008 0.018(6) -.007(3) 0.000(2) 0
#End of data_280133-ICSD


