data_280411-ICSD
#?2010 by Fachinformationszentrum Karlsruhe, and the U.S. Secretary of 
#Commerce on behalf of the United States.  All rights reserved.
_database_code_ICSD                280411
_audit_creation_date               2002/04/01
_audit_update_record               2005/10/01
_chemical_name_systematic
;
Heptacopper(I) Tetraselenophosphate(V) Diselenide - Alpha
;
_chemical_formula_structural       'Cu7 (P Se4) Se2'
_chemical_formula_sum              'Cu7 P1 Se6'
_publ_section_title
;
Structures and phase transitions of the A7 P Se6 (A= Ag, Cu) 
argyrodite-type ionic conductors III. alpha-Cu7 P Se6
;
loop_
_citation_id
_citation_journal_abbrev
_citation_year
_citation_journal_volume
_citation_page_first
_citation_page_last
_citation_journal_id_ASTM
primary 'Acta Crystallographica B (39,1983-)' 2000 56 972 979 ASBSDK
2 'Golden Book of Phase Transitions, Wroclaw' 2002 1 1 123 GBOPT5
_publ_author_name
;
Gaudin, E.;Petricek, V.;Boucher, F.;Taulelle, F.;Evain, M.
;
_cell_length_a                     14.3179(4)
_cell_length_b                     7.1112(2)
_cell_length_c                     10.1023(3)
_cell_angle_alpha                  90.
_cell_angle_beta                   90.
_cell_angle_gamma                  90.
_cell_volume                       1028.59
_cell_formula_units_Z              4
_symmetry_space_group_name_H-M     'P n a 21'
_symmetry_Int_Tables_number        33
_refine_ls_R_factor_all            .0466
loop_
_symmetry_equiv_pos_site_id
_symmetry_equiv_pos_as_xyz
  1	'x+.5, -y+.5, z'
  2	'-x+.5, y+.5, z+.5'
  3	'-x, -y, z+.5'
  4	'x, y, z'
loop_
_atom_type_symbol
_atom_type_oxidation_number
Cu1+	1
P5+	5
Se2-	-2
loop_
_atom_site_label
_atom_site_type_symbol
_atom_site_symmetry_multiplicity
_atom_site_Wyckoff_symbol
_atom_site_fract_x
_atom_site_fract_y
_atom_site_fract_z
_atom_site_occupancy
_atom_site_attached_hydrogens
_atom_site_U_iso_or_equiv
P1 P5+ 4 a 0.1239(3) 0.7531(6) 0.2500(5) 1. 0 0.0027(4) 
Se1 Se2- 4 a 0.0023(2) 0.7567(3) 0.1179(5) 1. 0 0 
Se2 Se2- 4 a 0.2511(2) 0.2514(2) 0.6242(5) 1. 0 0 
Se3 Se2- 4 a 0.3787(1) 0.5038(3) 0.8764(5) 1. 0 0 
Se4 Se2- 4 a -.1194(1) 0.5047(3) 0.8734(5) 1. 0 0 
Se5 Se2- 4 a 0.1253(1) 0.7180(3) 0.7351(5) 1. 0 0 
Se6 Se2- 4 a 0.3847(1) 0.7398(3) 0.5057(5) 1. 0 0 
Cu1 Cu1+ 4 a 0.2375(2) 0.4640(4) 0.9976(6) 1. 0 0 
Cu2 Cu1+ 4 a 0.7709(2) 0.4158(4) 0.0472(5) 1. 0 0 
Cu3 Cu1+ 4 a 0.2936(2) 0.7675(4) 0.7451(6) 1. 0 0 
Cu4 Cu1+ 4 a 0.9671(2) 0.0921(4) 0.0879(6) 1. 0 0 
Cu5 Cu1+ 4 a 0.5513(2) 0.9364(4) 0.9281(5) 1. 0 0 
Cu6 Cu1+ 4 a 0.8575(3) 0.0214(6) 0.3652(7) 1. 0 0 
Cu7 Cu1+ 4 a 0.3765(2) 0.8298(5) 0.2702(5) 1. 0 0 

loop_
_atom_site_aniso_label
_atom_site_aniso_type_symbol
_atom_site_aniso_U_11
_atom_site_aniso_U_22
_atom_site_aniso_U_33
_atom_site_aniso_U_12
_atom_site_aniso_U_13
_atom_site_aniso_U_23
Se1 Se2- 0.0065(9) 0.007(1) 0.004(1) 0.0010(7) 0.0010(7) -.0001(8)
Se2 Se2- 0.0061(9) 0.007(1) 0.005(1) -.0010(8) 0.0041(7) 0.0009(9)
Se3 Se2- 0.0085(9) 0.006(1) 0.006(1) 0.0014(9) 0.0015(9) 0.0024(7)
Se4 Se2- 0.0069(9) 0.006(1) 0.005(1) 0.0022(9) -.0002(9) 0.0030(7)
Se5 Se2- 0.0074(9) 0.0057(9) 0.009(1) -.0009(8) -.001(1) -.0016(7)
Se6 Se2- 0.0061 0.012(1) 0.009(1) 0.0008(8) 0.0012(8) 0.0000(9)
Cu1 Cu1+ 0.017(1) 0.016(1) 0.034(2) -.008(1) -.012(1) 0.010(1)
Cu2 Cu1+ 0.016(1) 0.020(1) 0.016(1) -.003(1) -.008(1) 0.004(1)
Cu3 Cu1+ 0.013(1) 0.024(2) 0.034(2) -.006(1) 0.010(1) 0.004(2)
Cu4 Cu1+ 0.025(2) 0.019(2) 0.028(2) 0.003(1) 0.000(1) -.004(1)
Cu5 Cu1+ 0.021(1) 0.024(2) 0.013(1) 0.000(1) 0.004(1) 0.001(1)
Cu6 Cu1+ 0.048(2) 0.044(2) 0.065(3) 0.004(2) -.004(2) -.040(2)
Cu7 Cu1+ 0.007(1) 0.072(2) 0.013(1) 0.002(2) 0.002(1) 0.011(1)
#End of data_280411-ICSD


