data_50420-ICSD
#?2010 by Fachinformationszentrum Karlsruhe, and the U.S. Secretary of 
#Commerce on behalf of the United States.  All rights reserved.
_database_code_ICSD                50420
_audit_creation_date               1999/11/30/星期二
_audit_update_record               2003/4/1/星期二
_chemical_name_systematic
;
Trilithium Discandium Tris(phosphate(V))
;
_chemical_formula_structural       'Li3 Sc2 (P O4)3'
_chemical_formula_sum              'Li3 O12 P3 Sc2'
_publ_section_title
;
Structure refinement of lithium ion conductors Li3 Sc2 (P O4)3 and 
Li(3-2x) (Sc(1-x) M(x))2 (P O4)3 (M = Ti, Zr) with x = 0.10 by 
neutron diffraction
;
loop_
_citation_id
_citation_journal_abbrev
_citation_year
_citation_journal_volume
_citation_page_first
_citation_page_last
_citation_journal_id_ASTM
primary 'Solid State Ionics' 1998 113 89 96 SSIOD3
2 'Phase Transition' 1992 38 127 220 PHTRDP
_publ_author_name
;
Suzuki, T.;Yoshida, K.;Uematsu, K.;Kodama, T.;Toda, K.;Ye, Z.-
G.;Ohashi, M.;Sato, M.
;
_cell_length_a                     8.8483(4)
_cell_length_b                     12.2737(5)
_cell_length_c                     8.7959(4)
_cell_angle_alpha                  90.
_cell_angle_beta                   90.
_cell_angle_gamma                  90.015(6)
_cell_volume                       955.25
_cell_formula_units_Z              4
_symmetry_space_group_name_H-M     'P 1 1 21/n'
_symmetry_Int_Tables_number        14
_refine_ls_R_factor_all            .009
loop_
_symmetry_equiv_pos_site_id
_symmetry_equiv_pos_as_xyz
  1	'x+.5, y+.5, -z+.5'
  2	'-x, -y, -z'
  3	'-x+.5, -y+.5, z+.5'
  4	'x, y, z'
loop_
_atom_type_symbol
_atom_type_oxidation_number
Li1+	1
O2-	-2
P5+	5
Sc3+	3
loop_
_atom_site_label
_atom_site_type_symbol
_atom_site_symmetry_multiplicity
_atom_site_Wyckoff_symbol
_atom_site_fract_x
_atom_site_fract_y
_atom_site_fract_z
_atom_site_occupancy
_atom_site_attached_hydrogens
_atom_site_B_iso_or_equiv
Li1 Li1+ 4 e 0.288(3) 0.332(2) 0.276(4) 1. 0 1.0(7) 
Li2 Li1+ 4 e 0.558(3) 0.218(3) 0.429(3) 1. 0 1.1(6) 
Li3 Li1+ 4 e 0.913(6) 0.229(4) 0.298(6) 1. 0 5.1(11) 
Sc1 Sc3+ 4 e 0.2468(9) 0.1072(6) 0.4566(7) 1. 0 2.2(2) 
Sc2 Sc3+ 4 e 0.7513(9) 0.3933(6) 0.4644(8) 1. 0 2.9(2) 
P1 P5+ 4 e 0.089(3) 0.144(2) 0.114(2) 1. 0 4.6(5) 
P2 P5+ 4 e 0.613(2) 0.345(1) 0.099(1) 1. 0 0.71(25) 
P3 P5+ 4 e 0.037(1) 0.489(2) 0.257(3) 1. 0 2.2(2) 
O1 O2- 4 e 0.427(2) 0.333(1) 0.095(1) 1. 0 1.1(3) 
O2 O2- 4 e 0.935(2) 0.164(1) 0.095(2) 1. 0 2.7(3) 
O3 O2- 4 e 0.344(1) 0.262(1) 0.473(1) 1. 0 0.88(23) 
O4 O2- 4 e 0.814(1) 0.220(1) 0.493(1) 1. 0 1.5(3) 
O5 O2- 4 e 0.155(2) 0.039(1) 0.062(1) 1. 0 1.6(3) 
O6 O2- 4 e 0.649(2) 0.461(1) 0.097(1) 1. 0 1.6(3) 
O7 O2- 4 e 0.467(1) 0.0697(9) 0.360(1) 1. 0 1.3(2) 
O8 O2- 4 e 0.925(1) 0.4051(9) 0.307(1) 1. 0 1.1(2) 
O9 O2- 4 e 0.159(2) 0.427(1) 0.164(1) 1. 0 2.1(3) 
O10 O2- 4 e 0.614(1) 0.063(1) 0.135(2) 1. 0 3.1(3) 
O11 O2- 4 e 0.158(2) 0.192(1) 0.258(2) 1. 0 2.6(3) 
O12 O2- 4 e 0.653(2) 0.312(1) 0.268(2) 1. 0 1.8(3) 

#End of data_50420-ICSD


