data_240861-ICSD
#?2010 by Fachinformationszentrum Karlsruhe, and the U.S. Secretary of 
#Commerce on behalf of the United States.  All rights reserved.
_database_code_ICSD                240861
_audit_creation_date               2008/8/1/星期五
_chemical_name_systematic          'Trilithium Phosphide'
_chemical_formula_structural       'Li3 P'
_chemical_formula_sum              'Li3 P1'
_publ_section_title
;
Reinvestigation of trilithium phosphide, Li3P
;
loop_
_citation_id
_citation_journal_abbrev
_citation_year
_citation_journal_volume
_citation_journal_issue
_citation_page_first
_citation_page_last
_citation_journal_id_ASTM
primary 'Acta Crystallographica E , Structure Reports Online'
 2007 63 4 i97 i98 ACSEBH
_publ_author_name                  'Dong, Y.;DiSalvo, F.J.'
_cell_length_a                     4.2286(3)
_cell_length_b                     4.2286(3)
_cell_length_c                     7.5566(13)
_cell_angle_alpha                  90.00
_cell_angle_beta                   90.00
_cell_angle_gamma                  120.00
_cell_volume                       117.01
_cell_formula_units_Z              2
_symmetry_space_group_name_H-M     'P 63/m m c'
_symmetry_Int_Tables_number        194
_refine_ls_R_factor_all            .015
loop_
_symmetry_equiv_pos_site_id
_symmetry_equiv_pos_as_xyz
  1	'x, x-y, -z+.5'
  2	'-x+y, y, -z+.5'
  3	'-y, -x, -z+.5'
  4	'-x+y, -x, -z+.5'
  5	'-y, x-y, -z+.5'
  6	'x, y, -z+.5'
  7	'-x, -x+y, z+.5'
  8	'x-y, -y, z+.5'
  9	'y, x, z+.5'
 10	'x-y, x, z+.5'
 11	'y, -x+y, z+.5'
 12	'-x, -y, z+.5'
 13	'-x, -x+y, -z'
 14	'x-y, -y, -z'
 15	'y, x, -z'
 16	'x-y, x, -z'
 17	'y, -x+y, -z'
 18	'-x, -y, -z'
 19	'x, x-y, z'
 20	'-x+y, y, z'
 21	'-y, -x, z'
 22	'-x+y, -x, z'
 23	'-y, x-y, z'
 24	'x, y, z'
loop_
_atom_type_symbol
_atom_type_oxidation_number
Li1+	1
P3-	-3
loop_
_atom_site_label
_atom_site_type_symbol
_atom_site_symmetry_multiplicity
_atom_site_Wyckoff_symbol
_atom_site_fract_x
_atom_site_fract_y
_atom_site_fract_z
_atom_site_occupancy
_atom_site_attached_hydrogens
_atom_site_U_iso_or_equiv
Li1 Li1+ 2 b 0.0000 1.0000 0.2500 1 0 0.0170(8) 
Li2 Li1+ 4 f 0.3333 0.6667 0.5839(4) 1 0 0.0164(7) 
P1 P3- 2 c 0.3333 0.6667 0.2500 1 0 0.0079(2) 

loop_
_atom_site_aniso_label
_atom_site_aniso_type_symbol
_atom_site_aniso_U_11
_atom_site_aniso_U_22
_atom_site_aniso_U_33
_atom_site_aniso_U_12
_atom_site_aniso_U_13
_atom_site_aniso_U_23
Li1 Li1+ 0.0122(11) 0.0122(11) 0.027(2) 0.0061(6) 0.000 0.000
Li2 Li1+ 0.0192(11) 0.0192(11) 0.0109(14) 0.0096(5) 0.000 0.000
P1 P3- 0.0079(3) 0.0079(3) 0.0080(4) 0.00394(14) 0.000 0.000
#End of data_240861-ICSD


