data_100169-ICSD
#?2010 by Fachinformationszentrum Karlsruhe, and the U.S. Secretary of 
#Commerce on behalf of the United States.  All rights reserved.
_database_code_ICSD                100169
_audit_creation_date               1980/1/1/星期二
_audit_update_record               1987/5/21/星期四
_chemical_name_systematic
;
14-lithium Zinc Tetrakis(germanate)
;
_chemical_formula_structural       'Li14 Zn (Ge O4)4'
_chemical_formula_sum              'Ge4 Li14 O16 Zn1'
_publ_section_title
;
Crystal structure and ionic conductivity of Li14 Zn (Ge O4)4 and 
other new Li superionic conductors
;
loop_
_citation_id
_citation_journal_abbrev
_citation_year
_citation_journal_volume
_citation_page_first
_citation_page_last
_citation_journal_id_ASTM
primary 'Materials Research Bulletin' 1978 13 117 124 MRBUAC
_publ_author_name                  'Hong, H.Y.-P.'
_cell_length_a                     10.828(2)
_cell_length_b                     6.251(1)
_cell_length_c                     5.140(1)
_cell_angle_alpha                  90.
_cell_angle_beta                   90.
_cell_angle_gamma                  90.
_cell_volume                       347.91
_cell_formula_units_Z              1
_symmetry_space_group_name_H-M     'P n m a'
_symmetry_Int_Tables_number        62
_refine_ls_R_factor_all            .055
loop_
_symmetry_equiv_pos_site_id
_symmetry_equiv_pos_as_xyz
  1	'x+.5, y, -z+.5'
  2	'x, -y+.5, z'
  3	'-x+.5, y+.5, z+.5'
  4	'-x, -y, -z'
  5	'-x+.5, -y, z+.5'
  6	'-x, y+.5, -z'
  7	'x+.5, -y+.5, -z+.5'
  8	'x, y, z'
loop_
_atom_type_symbol
_atom_type_oxidation_number
Ge4+	4
Li1+	1
O2-	-2
Zn2+	2
loop_
_atom_site_label
_atom_site_type_symbol
_atom_site_symmetry_multiplicity
_atom_site_Wyckoff_symbol
_atom_site_fract_x
_atom_site_fract_y
_atom_site_fract_z
_atom_site_occupancy
_atom_site_attached_hydrogens
_atom_site_B_iso_or_equiv
Li1 Li1+ 4 c 0.206(4) 0.25 0.978(9) 0.55(9) 0 4.(9) 
Li2 Li1+ 4 a 0 0 0 0.16(9) 0 8.(9) 
Li3 Li1+ 4 c 0.426(1) 0.75 0.163(3) 0.981(6) 0 1.6(6) 
Zn1 Zn2+ 4 c 0.426(1) 0.75 0.163(3) 0.019 0 1.6(6) 
Li4 Li1+ 8 d 0.1653(3) 0.9977(8) 0.3297(9) 0.863(3) 0 0.8(3) 
Zn2 Zn2+ 8 d 0.1653(3) 0.9977(8) 0.3297(9) 0.137 0 0.8(3) 
Ge1 Ge4+ 4 c 0.4131(1) 0.25 0.3396(2) 1. 0 0.82(3) 
O1 O2- 8 d 0.3353(5) 0.0245(9) 0.2185(9) 1. 0 1.5(3) 
O2 O2- 4 c 0.0880(6) 0.75 0.1778(9) 1. 0 0.8(3) 
O3 O2- 4 c 0.0633(6) 0.25 0.2789(9) 1. 0 0.9(3) 

#End of data_100169-ICSD


