data_172525-ICSD
#?2010 by Fachinformationszentrum Karlsruhe, and the U.S. Secretary of 
#Commerce on behalf of the United States.  All rights reserved.
_database_code_ICSD                172525
_audit_creation_date               2007/4/1/ÐÇÆÚÈÕ
_chemical_name_systematic          'Tetralithium Borhydride Triamide'
_chemical_formula_structural       'Li4 B H4 (N H2)3'
_chemical_formula_sum              'H10 B1 Li4 N3'
_publ_section_title
;
Synthesis and crystal structure of Li4 B H4 (N H2)3
;
loop_
_citation_id
_citation_journal_abbrev
_citation_year
_citation_journal_volume
_citation_journal_issue
_citation_page_first
_citation_page_last
_citation_journal_id_ASTM
primary 'Chemical Communications' 2006 2006 23 2439 2441 CHCOFS
_publ_author_name
;
Chater, P.A.;David, W.I.F.;Johnson, S.R.;Edwards, P.P.;Andersen, P.A.
;
_cell_length_a                     10.66445(1)
_cell_length_b                     10.66445(1)
_cell_length_c                     10.66445(1)
_cell_angle_alpha                  90
_cell_angle_beta                   90
_cell_angle_gamma                  90
_cell_volume                       1212.85
_cell_formula_units_Z              8
_symmetry_space_group_name_H-M     'I 21 3'
_symmetry_Int_Tables_number        199
_refine_ls_R_factor_all            .106
loop_
_symmetry_equiv_pos_site_id
_symmetry_equiv_pos_as_xyz
  1	'-z+.5, -x, y+.5'
  2	'-y+.5, -z, x+.5'
  3	'-x+.5, -y, z+.5'
  4	'-z, x+.5, -y+.5'
  5	'-y, z+.5, -x+.5'
  6	'-x, y+.5, -z+.5'
  7	'z+.5, -x+.5, -y'
  8	'y+.5, -z+.5, -x'
  9	'x+.5, -y+.5, -z'
 10	'z, x, y'
 11	'y, z, x'
 12	'x, y, z'
 13	'-z, -x+.5, y'
 14	'-y, -z+.5, x'
 15	'-x, -y+.5, z'
 16	'-z+.5, x, -y'
 17	'-y+.5, z, -x'
 18	'-x+.5, y, -z'
 19	'z, -x, -y+.5'
 20	'y, -z, -x+.5'
 21	'x, -y, -z+.5'
 22	'z+.5, x+.5, y+.5'
 23	'y+.5, z+.5, x+.5'
 24	'x+.5, y+.5, z+.5'
loop_
_atom_type_symbol
_atom_type_oxidation_number
B3+	3
H1-	-1
H1+	1
Li1+	1
N3-	-3
loop_
_atom_site_label
_atom_site_type_symbol
_atom_site_symmetry_multiplicity
_atom_site_Wyckoff_symbol
_atom_site_fract_x
_atom_site_fract_y
_atom_site_fract_z
_atom_site_occupancy
_atom_site_attached_hydrogens
_atom_site_B_iso_or_equiv
Li1 Li1+ 12 b 0.25 -0.0428(14) 0 1 0 1.46(13) 
Li2 Li1+ 12 b -0.2622(16) 0 0.25 1 0 1.46(13) 
Li3 Li1+ 8 a 0.2722(12) 0.2722(12) 0.2722(12) 1 0 1.46(13) 
B1 B3+ 8 a 0.13542(46) 0.13542(46) 0.13542(46) 1 0 1.42(16) 
H1 H1- 8 a 0.0721(15) 0.0721(15) 0.0721(15) 1 0 4.08(22) 
H2 H1- 24 c 0.09693(97) 0.13611(88) 0.24797(79) 1 0 4.08(22) 
N1 N3- 24 c -0.15593(27) 0.11005(24) 0.36675(31) 1 0 1.792(73) 
H3 H1+ 24 c -0.1533(12) 0.0533(15) 0.4394(12) 1 0 5.58(17) 
H4 H1+ 24 c -0.0773(12) 0.1672(12) 0.3768(14) 1 0 5.58(17) 

#End of data_172525-ICSD


