data_47145-ICSD
#?2010 by Fachinformationszentrum Karlsruhe, and the U.S. Secretary of 
#Commerce on behalf of the United States.  All rights reserved.
_database_code_ICSD                47145
_audit_creation_date               1985/6/11/ÐÇÆÚ¶þ
_chemical_name_systematic
;
Lithium Silicate Sulfate (3.4/0.7/0.3/4)
;
_chemical_formula_structural       'Li3.4 Si0.7 S0.3 O4'
_chemical_formula_sum              'Li3.4 O4 S0.3 Si0.7'
_publ_section_title
;
The Structure of Li3.4 Si0.7 S0.3 O4 by Powder Neutron Diffraction
;
loop_
_citation_id
_citation_journal_abbrev
_citation_year
_citation_journal_volume
_citation_page_first
_citation_page_last
_citation_journal_id_ASTM
primary 'Journal of Solid State Chemistry' 1984 55 14 22 JSSCBI
_publ_author_name
;
Fitch, A.N.;Fender, B.E.F.;Talbot, J.
;
_cell_length_a                     6.2859(2)
_cell_length_b                     10.7716(2)
_cell_length_c                     5.1059(1)
_cell_angle_alpha                  90.
_cell_angle_beta                   90.
_cell_angle_gamma                  90.
_cell_volume                       345.72
_cell_formula_units_Z              4
_symmetry_space_group_name_H-M     'P m n b'
_symmetry_Int_Tables_number        62
_refine_ls_R_factor_all            .045
loop_
_symmetry_equiv_pos_site_id
_symmetry_equiv_pos_as_xyz
  1	'x, y+.5, -z+.5'
  2	'-x+.5, y, z'
  3	'x+.5, -y+.5, z+.5'
  4	'-x, -y, -z'
  5	'-x, -y+.5, z+.5'
  6	'x+.5, -y, -z'
  7	'-x+.5, y+.5, -z+.5'
  8	'x, y, z'
loop_
_atom_type_symbol
_atom_type_oxidation_number
Li1+	1
O2-	-2
S6+	6
Si4+	4
loop_
_atom_site_label
_atom_site_type_symbol
_atom_site_symmetry_multiplicity
_atom_site_Wyckoff_symbol
_atom_site_fract_x
_atom_site_fract_y
_atom_site_fract_z
_atom_site_occupancy
_atom_site_attached_hydrogens
_atom_site_B_iso_or_equiv
Si1 Si0+ 4 c 0.25 0.4100(3) 0.3223(6) 0.7 0 0 
S1 S0+ 4 c 0.25 0.4100(3) 0.3223(6) 0.3 0 0 
O2 O0+ 4 c 0.25 0.0485(2) 0.2769(5) 1. 0 0 
O3 O0+ 4 c 0.25 0.9086(3) 0.8655(4) 1. 0 0 
Li1 Li0+ 8 d 0.000(1) 0.3340(7) 0.8092(21) 0.7875 0 5.1(2) 
Li2 Li0+ 4 c 0.25 0.5677(9) 0.8157(18) 0.75 0 5.1(2) 
Li3 Li0+ 8 d 0.068(21) 0.485(2) 0.925(6) 0.1625 0 6.6(8) 
Li4 Li0+ 8 d -.032(2) 0.340(1) 0.633(6) 0.225 0 6.6(8) 
Li5 Li0+ 4 c 0.25 0.628(3) 0.618(7) 0.25 0 6.6(8) 
#Position of 8 Elements of O Are Undetermined.
loop_
_atom_site_aniso_label
_atom_site_aniso_type_symbol
_atom_site_aniso_B_11
_atom_site_aniso_B_22
_atom_site_aniso_B_33
_atom_site_aniso_B_12
_atom_site_aniso_B_13
_atom_site_aniso_B_23
Si1 Si0+ 1.6(1) 2.4(1) 2.8(2) 0 0 0.6(2)
S1 S0+ 1.6(1) 2.4(1) 2.8(2) 0 0 0.6(2)
O2 O0+ 2.7(1) 3.2(1) 4.4(1) 0 0 -.1(1)
O3 O0+ 2.9(1) 4.4(1) 2.6(1) 0 0 0.1(1)
#End of data_47145-ICSD


