data_89456-ICSD
#?2010 by Fachinformationszentrum Karlsruhe, and the U.S. Secretary of 
#Commerce on behalf of the United States.  All rights reserved.
_database_code_ICSD                89456
_audit_creation_date               2002/4/1/ÐÇÆÚÒ»
_audit_update_record               2005/10/1/ÐÇÆÚÁù
_chemical_name_systematic
;
Lithium Dizirconium Tris(phosphate(V)) - Alpha'
;
_chemical_formula_structural       'Li Zr2 (P O4)3'
_chemical_formula_sum              'Li1 O12 P3 Zr2'
_publ_section_title
;
Lithium location in NASICON-type Li(+) conductors by neutron 
diffraction. I. Triclinic alpha'-Li Zr2 (P O4)3
;
loop_
_citation_id
_citation_journal_abbrev
_citation_year
_citation_journal_volume
_citation_page_first
_citation_page_last
_citation_journal_id_ASTM
primary 'Solid State Ionics' 1999 123 173 180 SSIOD3
_publ_author_name
;
Catti, M.;Stramare, S.;Ibberson, R.
;
_cell_length_a                     15.0718(2)
_cell_length_b                     8.8556(1)
_cell_length_c                     9.1234(1)
_cell_angle_alpha                  89.661(1)
_cell_angle_beta                   123.912(1)
_cell_angle_gamma                  90.429(1)
_cell_volume                       1010.53
_cell_formula_units_Z              4
_symmetry_space_group_name_H-M     'C -1'
_symmetry_Int_Tables_number        2
_refine_ls_R_factor_all            .06
loop_
_symmetry_equiv_pos_site_id
_symmetry_equiv_pos_as_xyz
  1	'-x, -y, -z'
  2	'x, y, z'
  3	'-x+.5, -y+.5, -z'
  4	'x+.5, y+.5, z'
loop_
_atom_type_symbol
_atom_type_oxidation_number
Li1+	1
O2-	-2
P5+	5
Zr4+	4
loop_
_atom_site_label
_atom_site_type_symbol
_atom_site_symmetry_multiplicity
_atom_site_Wyckoff_symbol
_atom_site_fract_x
_atom_site_fract_y
_atom_site_fract_z
_atom_site_occupancy
_atom_site_attached_hydrogens
_atom_site_U_iso_or_equiv
Li1 Li1+ 4 i 0.7258(22) 0.0216(31) 0.4115(38) 0.71(3) 0 0.010(9) 
Li2 Li1+ 4 i 0.714(5) 0.900(7) 0.314(8) 0.29(3) 0 0.001(9) 
Zr1 Zr4+ 4 i 0.3922(5) 0.2475(7) 0.4256(8) 1. 0 0.001(2) 
Zr2 Zr4+ 4 i 0.6079(5) 0.2515(8) 0.0610(8) 1. 0 0.001(2) 
P1 P5+ 4 i 0.1469(6) 0.1066(8) 0.2645(10) 1. 0 0.001(2) 
P2 P5+ 4 i 0.8560(6) 0.1084(8) 0.2489(11) 1. 0 0.001(2) 
P3 P5+ 4 i 0.0074(7) 0.5231(9) 0.2554(13) 1. 0 0.012(2) 
O1 O2- 4 i 0.5457(5) 0.3078(8) 0.6129(9) 1. 0 0.001(2) 
O2 O2- 4 i 0.3411(5) 0.3905(8) 0.5625(9) 1. 0 0.001(2) 
O3 O2- 4 i 0.4055(5) 0.0708(7) 0.5961(9) 1. 0 0.001(2) 
O4 O2- 4 i 0.3724(6) 0.4327(9) 0.2769(10) 1. 0 0.014(2) 
O5 O2- 4 i 0.2304(5) 0.1938(8) 0.2635(9) 1. 0 0.005(2) 
O6 O2- 4 i 0.4393(5) 0.1071(7) 0.3099(9) 1. 0 0.002(2) 
O7 O2- 4 i 0.4623(6) 0.3439(8) 0.8912(10) 1. 0 0.005(2) 
O8 O2- 4 i 0.6680(6) 0.3618(8) 0.9375(10) 1. 0 0.007(2) 
O9 O2- 4 i 0.5668(6) 0.0703(8) 0.9086(10) 1. 0 0.007(2) 
O10 O2- 4 i 0.6601(5) 0.4345(8) 0.236(1) 1. 0 0.003(2) 
O11 O2- 4 i 0.7550(6) 0.1463(8) 0.247(1) 1. 0 0.002(2) 
O12 O2- 4 i 0.5721(6) 0.1477(8) 0.2257(10) 1. 0 0.012(2) 

#End of data_89456-ICSD


