data_154395-ICSD
#?2010 by Fachinformationszentrum Karlsruhe, and the U.S. Secretary of 
#Commerce on behalf of the United States.  All rights reserved.
_database_code_ICSD                154395
_audit_creation_date               2007/4/1/ÐÇÆÚÈÕ
_chemical_name_systematic          'Lithium Amide'
_chemical_formula_structural       'Li (N H2)'
_chemical_formula_sum              'H2 Li1 N1'
_publ_section_title
;
Crystal and electronic structures of Li N H2
;
loop_
_citation_id
_citation_journal_abbrev
_citation_year
_citation_journal_volume
_citation_page_first
_citation_page_last
_citation_journal_id_ASTM
primary 'Applied Physics Letters' 2006 88 041914-1 041914-3 APPLAB
_publ_author_name
;
Yang, J.B.;Zhou, X.D.;Cai, Q.;James, W.J.;Yelon, W.B.
;
_cell_length_a                     5.03442(24)
_cell_length_b                     5.03442(24)
_cell_length_c                     10.25558(52)
_cell_angle_alpha                  90.
_cell_angle_beta                   90.
_cell_angle_gamma                  90.
_cell_volume                       259.93
_cell_formula_units_Z              8
_symmetry_space_group_name_H-M     'I -4'
_symmetry_Int_Tables_number        82
loop_
_symmetry_equiv_pos_site_id
_symmetry_equiv_pos_as_xyz
  1	'-y, x, -z'
  2	'y, -x, -z'
  3	'-x, -y, z'
  4	'x, y, z'
  5	'-y+.5, x+.5, -z+.5'
  6	'y+.5, -x+.5, -z+.5'
  7	'-x+.5, -y+.5, z+.5'
  8	'x+.5, y+.5, z+.5'
loop_
_atom_type_symbol
_atom_type_oxidation_number
H1+	1
Li1+	1
N3-	-3
loop_
_atom_site_label
_atom_site_type_symbol
_atom_site_symmetry_multiplicity
_atom_site_Wyckoff_symbol
_atom_site_fract_x
_atom_site_fract_y
_atom_site_fract_z
_atom_site_occupancy
_atom_site_attached_hydrogens
Li1 Li1+ 2 a 0. 0. 0. 1. 0 
Li2 Li1+ 4 f 0. 0.5 0.00253 1. 0 
Li3 Li1+ 2 c 0. 0.5 0.250 1. 0 
N1 N3- 8 g 0.2286 0.2499 0.1158 1. 2 
H1 H1+ 8 g 0.2429 0.1285 0.1910 1. 0 
H2 H1+ 8 g 0.3840 0.3512 0.1278 1. 0 

#End of data_154395-ICSD


