data_150918-ICSD
#?2010 by Fachinformationszentrum Karlsruhe, and the U.S. Secretary of 
#Commerce on behalf of the United States.  All rights reserved.
_database_code_ICSD                150918
_audit_creation_date               2006/4/1/ÐÇÆÚÁù
_audit_update_record               2008/8/1/ÐÇÆÚÎå
_chemical_name_systematic
;
Lithium Germanium Vanadium Oxide (3.75/0.75/0.25/4)
;
_chemical_formula_structural       'Li3.75 (Ge0.75 V0.25 O4)'
_chemical_formula_sum              'Ge0.75 Li3.75 O4 V0.25'
_publ_section_title
;
Crystalline structure and electroconductivity of solid electrolytes 
Li3.75 Ge0.75 V0.25 O4 and Li3.70 Ge0.85 W0.15 O4
;
loop_
_citation_id
_citation_journal_abbrev
_citation_year
_citation_journal_volume
_citation_journal_issue
_citation_page_first
_citation_page_last
_citation_journal_id_ASTM
primary 'Russian journal of electrochemistry (= Elektrokhimiya)'
 2003 39 10 1124 1129 RJELE3
_publ_author_name
;
Burmakin, E.I.;Voronin, V.I.;Shekhtman, G.Sh.
;
_cell_length_a                     10.896(1)
_cell_length_b                     6.2516(8)
_cell_length_c                     5.1571(6)
_cell_angle_alpha                  90.
_cell_angle_beta                   90.
_cell_angle_gamma                  90.
_cell_volume                       351.29
_cell_formula_units_Z              4
_symmetry_space_group_name_H-M     'P n m a'
_symmetry_Int_Tables_number        62
_refine_ls_R_factor_all            .054
loop_
_symmetry_equiv_pos_site_id
_symmetry_equiv_pos_as_xyz
  1	'x+.5, y, -z+.5'
  2	'x, -y+.5, z'
  3	'-x+.5, y+.5, z+.5'
  4	'-x, -y, -z'
  5	'-x+.5, -y, z+.5'
  6	'-x, y+.5, -z'
  7	'x+.5, -y+.5, -z+.5'
  8	'x, y, z'
loop_
_atom_type_symbol
_atom_type_oxidation_number
Ge4+	4
Li1+	1
O2-	-2
V5+	5
loop_
_atom_site_label
_atom_site_type_symbol
_atom_site_symmetry_multiplicity
_atom_site_Wyckoff_symbol
_atom_site_fract_x
_atom_site_fract_y
_atom_site_fract_z
_atom_site_occupancy
_atom_site_attached_hydrogens
_atom_site_B_iso_or_equiv
Li1 Li1+ 4 c 0.075(2) 0.250 0.644(5) 0.75(5) 0 1.49(3) 
Li2 Li1+ 4 c 0.114(6) 0.250 0.765(8) 0.25(5) 0 1.49(3) 
Li3 Li1+ 8 d 0.169(2) -0.011(3) 0.313(3) 0.685(20) 0 1.78(9) 
Li4 Li1+ 8 d 0.143(4) 0.027(6) 0.109(8) 0.315(20) 0 1.78(9) 
Li5 Li1+ 4 c 0.327(6) 0.250 0.015(6) 0.25(1) 0 3.5(8) 
Li6 Li1+ 8 d 0.031(6) 0.518(7) 0.389(7) 0.245(5) 0 3.5(8) 
Ge1 Ge4+ 4 c 0.4152(7) 0.250 0.339(1) 0.75 0 0 
V1 V5+ 4 c 0.4152(7) 0.250 0.339(1) 0.25 0 0 
O1 O2- 8 d 0.3363(5) 0.0217(7) 0.2242(8) 1. 0 0 
O2 O2- 4 c 0.4134(6) 0.250 0.676(1) 1. 0 0 
O3 O2- 4 c 0.0606(8) 0.250 0.280(1) 1. 0 0 

#End of data_150918-ICSD


