data_150921-ICSD
#?2010 by Fachinformationszentrum Karlsruhe, and the U.S. Secretary of 
#Commerce on behalf of the United States.  All rights reserved.
_database_code_ICSD                150921
_audit_creation_date               2006/4/1/ÐÇÆÚÁù
_chemical_name_systematic
;
Lithium Germanium Tungsten Oxide (3.7/0.85/0.15/4)
;
_chemical_formula_structural       'Li3.70 (Ge0.85 W0.15 O4)'
_chemical_formula_sum              'Ge0.85 Li3.7 O4 W0.15'
_publ_section_title
;
Crystalline structure and electroconductivity of solid electrolytes 
Li3.75 Ge0.75 V0.25 O4 and Li3.70 Ge0.85 W0.15 O4
;
loop_
_citation_id
_citation_journal_abbrev
_citation_year
_citation_journal_volume
_citation_journal_issue
_citation_page_first
_citation_page_last
_citation_journal_id_ASTM
primary 'Russian journal of electrochemistry (= Elektrokhimiya)'
 2003 39 10 1124 1129 RJELE3
_publ_author_name
;
Burmakin, E.I.;Voronin, V.I.;Shekhtman, G.Sh.
;
_cell_length_a                     11.052(1)
_cell_length_b                     6.345(1)
_cell_length_c                     5.244(1)
_cell_angle_alpha                  90.
_cell_angle_beta                   90.
_cell_angle_gamma                  90.
_cell_volume                       367.74
_cell_formula_units_Z              4
_symmetry_space_group_name_H-M     'P n m a'
_symmetry_Int_Tables_number        62
_refine_ls_R_factor_all            .0977
loop_
_symmetry_equiv_pos_site_id
_symmetry_equiv_pos_as_xyz
  1	'x+.5, y, -z+.5'
  2	'x, -y+.5, z'
  3	'-x+.5, y+.5, z+.5'
  4	'-x, -y, -z'
  5	'-x+.5, -y, z+.5'
  6	'-x, y+.5, -z'
  7	'x+.5, -y+.5, -z+.5'
  8	'x, y, z'
loop_
_atom_type_symbol
_atom_type_oxidation_number
Ge4+	4
Li1+	1
O2-	-2
W6+	6
loop_
_atom_site_label
_atom_site_type_symbol
_atom_site_symmetry_multiplicity
_atom_site_Wyckoff_symbol
_atom_site_fract_x
_atom_site_fract_y
_atom_site_fract_z
_atom_site_occupancy
_atom_site_attached_hydrogens
_atom_site_B_iso_or_equiv
Li1 Li1+ 4 c 0.110(8) 0.250 0.667(9) 0.51(5) 0 2.2(4) 
Li2 Li1+ 4 c 0.096(8) 0.250 0.873(8) 0.49(5) 0 2.2(4) 
Li3 Li1+ 8 d 0.167(4) -0.031(6) 0.327(6) 0.52(3) 0 2.11(9) 
Li4 Li1+ 8 d 0.169(6) 0.041(7) 0.124(8) 0.48(3) 0 2.11(9) 
Li5 Li1+ 4 c 0.190(9) 0.250 -0.022(7) 0.36(2) 0 3.7(9) 
Li6 Li1+ 8 d 0.041(6) 0.485(9) 0.421(8) 0.17(1) 0 3.7(9) 
Ge1 Ge4+ 4 c 0.4156(5) 0.250 0.345(1) 0.85 0 0 
W1 W6+ 4 c 0.4156(5) 0.250 0.345(1) 0.15 0 0 
O1 O2- 8 d 0.3352(6) 0.0226(11) 0.232(1) 1. 0 0 
O2 O2- 4 c 0.4136(7) 0.250 0.671(1) 1. 0 0 
O3 O2- 4 c 0.0601(6) 0.250 0.257(1) 1. 0 0 

#End of data_150921-ICSD


