data_2929-ICSD
#?2010 by Fachinformationszentrum Karlsruhe, and the U.S. Secretary of 
#Commerce on behalf of the United States.  All rights reserved.
_database_code_ICSD                2929
_audit_creation_date               1980/1/1/星期二
_audit_update_record               2010/8/1/星期日
_chemical_name_systematic          'Lithium Alumosilicate'
_chemical_formula_structural       'Li (Al Si O4)'
_chemical_formula_sum              'Al1 Li1 O4 Si1'
_chemical_name_mineral             Pseudo-eucryptite
_publ_section_title
;
Average and superstructure of beta-eucryptite (Li Al Si O4). Part II. 
Superstructure
;
loop_
_citation_id
_citation_journal_abbrev
_citation_year
_citation_journal_volume
_citation_page_first
_citation_page_last
_citation_journal_id_ASTM
primary
;
Zeitschrift fuer Kristallographie, Kristallgeometrie, Kristallphysik, 
Kristallchemie (-144,1977)
;
 1972 135 175 198 ZEKGAX
2 'Golden Book of Phase Transitions, Wroclaw' 2002 1 1 123 GBOPT5
_publ_author_name                  'Tscherry, V.;Schulz, H.;Laves, F.'
_cell_length_a                     10.4818(3)
_cell_length_b                     10.4818(3)
_cell_length_c                     11.1750(7)
_cell_angle_alpha                  90.
_cell_angle_beta                   90.
_cell_angle_gamma                  120.
_cell_volume                       1063.29
_cell_formula_units_Z              12
_symmetry_space_group_name_H-M     'P 64 2 2'
_symmetry_Int_Tables_number        181
_refine_ls_R_factor_all            .057
loop_
_symmetry_equiv_pos_site_id
_symmetry_equiv_pos_as_xyz
  1	'x, x-y, -z+.6667'
  2	'-x+y, y, -z'
  3	'-y, -x, -z+.3333'
  4	'-x, -x+y, -z+.6667'
  5	'x-y, -y, -z'
  6	'y, x, -z+.3333'
  7	'x-y, x, z+.6667'
  8	'y, -x+y, z+.3333'
  9	'-x, -y, z'
 10	'-x+y, -x, z+.6667'
 11	'-y, x-y, z+.3333'
 12	'x, y, z'
loop_
_atom_type_symbol
_atom_type_oxidation_number
Al3+	3
Li1+	1
O2-	-2
Si4+	4
loop_
_atom_site_label
_atom_site_type_symbol
_atom_site_symmetry_multiplicity
_atom_site_Wyckoff_symbol
_atom_site_fract_x
_atom_site_fract_y
_atom_site_fract_z
_atom_site_occupancy
_atom_site_attached_hydrogens
Si1 Si4+ 6 g 0.2492(4) 0 0 1. 0 
Al1 Al3+ 6 h 0.2511(4) 0 0.5 1. 0 
Si2 Si4+ 6 i 0.2485(2) 0.4970(4) 0 1. 0 
Al2 Al3+ 6 j 0.2512(2) 0.5024(4) 0.5 1. 0 
O1 O2- 12 k 0.0866(4) 0.1987(5) 0.2424(3) 1. 0 
O2 O2- 12 k 0.6037(5) 0.7013(4) 0.2622(4) 1. 0 
O3 O2- 12 k 0.1051(5) 0.7076(5) 0.2626(4) 1. 0 
O4 O2- 12 k 0.5918(4) 0.2026(5) 0.2499(4) 1. 0 
Li1 Li1+ 3 b 0 0 0.5 1. 0 
Li2 Li1+ 3 c 0.5 0 0 1. 0 
Li3 Li1+ 6 f 0.5 0 0.324(3) 1. 0 

#End of data_2929-ICSD


